LAMMPS data file via write_data, version 23 Jun 2022, timestep = 20000

1792 atoms
1 atom types
896 bonds
1 bond types

-0.5 12.3 xlo xhi
-0.5 12.3 ylo yhi
-0.5 12.3 zlo zhi
0 0 0 xy xz yz

Masses

1 1

PairIJ Coeffs # lj/cut/chunk

1 1 1 1 2.5

Bond Coeffs # fene

1 37 1.4 1 1

Atoms # full

11 6 1 0 2.1430506576448853 2.2510118876973593 -0.35616994433331917 0 0 0
12 6 1 0 1.4321541875649324 2.2342994287130615 0.2321286682532201 0 0 0
15 8 1 0 1.6408045950721566 0.32554587405522284 2.4919046907651623 0 0 0
16 8 1 0 1.2882874573511467 0.6454384542035005 1.7157869673196484 0 0 0
17 9 1 0 1.827676174184297 1.266282644815419 -0.09613138517630615 0 0 0
19 10 1 0 0.8720989416211291 1.4564514005784002 1.9821613365349968 0 0 0
20 10 1 0 0.6573710665861254 0.7350747454619921 2.5393049701197867 0 0 0
25 13 1 0 1.055982280867915 3.540224006781652 2.44934575312575 0 0 0
26 13 1 0 0.5676562090532595 4.330691497782969 2.3878390976392083 0 0 0
451 226 1 0 12.244893168120498 -0.4224542677463157 5.073491709607262 -1 0 0
452 226 1 0 -0.06114807172818304 12.10616815843697 5.880612817083546 0 -1 0
459 230 1 0 1.4376248336153978 1.3618256686210963 3.050966759327887 0 0 0
460 230 1 0 0.8971695165183373 1.109056123988589 3.7878082949293264 0 0 0
461 231 1 0 3.5980116540124456 -0.20890058333993805 6.298828015915439 0 0 0
463 232 1 0 4.228223327177052 1.1713511152907676 7.309495153211855 0 0 0
464 232 1 0 3.5383285118462613 0.552124123105834 7.049291957411056 0 0 0
467 234 1 0 -0.2764613686748855 0.926660193825886 3.7013804846025513 0 0 0
469 235 1 0 1.5375923035033887 1.2654421833479774 4.549370124880512 0 0 0
470 235 1 0 0.8624891319128225 0.8852023938842475 5.140212602849187 0 0 0
472 236 1 0 0.08065705881531848 0.43933458019008464 4.568876925830708 0 0 0
901 451 1 0 1.1643504813704482 2.546053339020606 6.701894709983441 0 0 0
902 451 1 0 0.6097627277444564 2.5815412363576837 5.88120958866687 0 0 0
907 454 1 0 2.5290742466839546 3.6227255840801584 6.310319868220808 0 0 0
908 454 1 0 2.925660562825683 2.835756603140101 6.737183216804238 0 0 0
909 455 1 0 0.22687492419257005 2.0695226359142596 8.280070874283185 0 0 0
911 456 1 0 1.7222000154334158 0.962201203326086 8.468262480121483 0 0 0
912 456 1 0 1.6542644285762274 1.7867459713128127 8.909325435054365 0 0 0
914 457 1 0 12.008716788152476 1.6579940218376148 8.43750717869104 -1 0 0
915 458 1 0 0.675216271170944 3.227130388749517 7.3980198891905475 0 0 0
919 460 1 0 0.11662626637847329 0.6504834125391814 7.001158494752324 0 0 0
920 460 1 0 -0.0644437888140208 1.3343271112004704 7.622360501665099 0 0 0
921 461 1 0 1.0932612701819662 3.0971389739310724 8.337744198776575 0 0 0
922 461 1 0 1.3135881354119805 3.850900284366265 8.887291808690852 0 0 0
923 462 1 0 12.06849367234952 0.38903673720887433 5.9023030599036055 -1 0 0
1346 673 1 0 -0.3147685695594765 1.236249954899188 10.0962478608336 0 0 0
1349 675 1 0 0.06276144776732362 2.3457527417859354 10.382945653973842 0 0 0
1350 675 1 0 0.32854455336372745 2.8184581928017503 11.206699264647822 0 0 0
1355 678 1 0 1.1323485512094935 5.431952141961618 8.50009406260105 0 0 0
1356 678 1 0 0.6108148450878028 4.687898494966291 8.881807760661662 0 0 0
1361 681 1 0 0.6592017746576961 3.1192145056663345 10.212698395635591 0 0 0
1362 681 1 0 0.5220136365174408 2.623911423243921 9.40078237982978 0 0 0
1363 682 1 0 2.794741287731475 3.6844301192325606 9.039312304753347 0 0 0
119 60 1 0 1.9878511888018817 3.4837156328473315 2.8499950221796433 0 0 0
120 60 1 0 1.6297992489658415 2.5804538828793295 2.693749387623115 0 0 0
121 61 1 0 -0.09506441970245683 5.541404109122827 3.634574893387234 0 0 0
122 61 1 0 12.229726996341538 4.764756356225117 3.612735908372769 -1 0 0
123 62 1 0 1.8951177160737567 4.585486172440003 -0.16089274550481458 0 0 0
125 63 1 0 3.238452744476982 2.7939866354079927 3.9917820474755565 0 0 0
126 63 1 0 3.900235709895113 3.303671479121456 3.621129273839686 0 0 0
127 64 1 0 2.5788851969728026 3.9947997191803557 1.862066431329933 0 0 0
128 64 1 0 1.6766654411055906 4.127877955009573 1.7468897360735762 0 0 0
131 66 1 0 1.2977868355759985 3.5924066227262808 0.873879872751244 0 0 0
133 67 1 0 1.2072978842142825 2.096702740477147 3.886329452213892 0 0 0
134 67 1 0 1.7019726217942712 2.8667516302066893 3.714860469702841 0 0 0
135 68 1 0 0.677396369152319 2.7420199781231136 3.1994196513106696 0 0 0
136 68 1 0 0.39098220132789374 2.9925148896239 4.045515005902204 0 0 0
137 69 1 0 0.6847119156985852 4.159665641079605 3.4933681509494026 0 0 0
138 69 1 0 1.1943565580589621 4.879254614336692 3.8741515867825527 0 0 0
139 70 1 0 1.0058150444238239 2.5801542075029325 1.3632576177538789 0 0 0
140 70 1 0 0.6550188650629272 2.617103504153093 2.2097803319553044 0 0 0
567 284 1 0 1.9142735852925927 4.545999627980804 5.962063903085111 0 0 0
568 284 1 0 1.0558406692507463 4.853520601708752 6.195891090482707 0 0 0
571 286 1 0 3.8516814243350996 5.413250781949902 2.2104261239344347 0 0 0
572 286 1 0 3.0765556798099483 5.249855608667069 2.724691042519596 0 0 0
573 287 1 0 2.802835639952125 4.188210139630164 5.326645303094519 0 0 0
574 287 1 0 3.3025645928710894 3.551162655385503 4.762356309586509 0 0 0
575 288 1 0 1.668766732556688 5.657329332067717 5.679153407060042 0 0 0
576 288 1 0 2.4092465484096395 5.167664039765068 5.249639828620176 0 0 0
577 289 1 0 -0.030639852519517397 1.7815888507940691 4.202887088285672 0 0 0
578 289 1 0 -0.40917359465741343 2.6019530042120227 4.444993028862399 0 0 0
581 291 1 0 0.8835859260090673 3.9534651975016093 5.390551022733537 0 0 0
582 291 1 0 1.1679024590706506 3.2013025866734655 4.935217164016098 0 0 0
583 292 1 0 4.74496959083088 3.3998297356989013 4.809116898466943 0 0 0
584 292 1 0 4.460708861616859 3.931193033522928 5.53248571320097 0 0 0
587 294 1 0 2.088416883214381 1.446150742993648 5.848317260305539 0 0 0
588 294 1 0 2.8710069202650583 0.9622042608452461 6.024905802494541 0 0 0
1013 507 1 0 0.026958600207587224 7.721065715927198 7.875701611564285 0 0 0
1015 508 1 0 1.2944667024311327 0.11744296322481018 7.109750147998996 0 0 0
1016 508 1 0 0.4277402441335809 -0.2952098697236055 7.030934978438305 0 0 0
1017 509 1 0 0.0834014534212929 7.248079431841425 9.04009862513851 0 0 0
1018 509 1 0 0.4510445811140933 6.827482417799506 8.294066884682385 0 0 0
1019 510 1 0 2.9053249947853255 4.71279302696145 6.87260222461033 0 0 0
1020 510 1 0 3.308965871717048 4.852553858817256 5.968540865115948 0 0 0
1021 511 1 0 0.8019242053217859 4.027680638440889 8.05136623079349 0 0 0
1022 511 1 0 -0.06781965840312743 4.231450091759982 8.31006028703579 0 0 0
1023 512 1 0 3.425404035566335 6.485704521020249 6.970765314948173 0 0 0
1024 512 1 0 3.7840877383539366 5.753008173074939 6.493438793526382 0 0 0
1025 513 1 0 0.6923789259837347 2.302479586669426 4.9235987158219 0 0 0
1026 513 1 0 0.03004460050331581 1.7403165978644575 5.245987501384857 0 0 0
1027 514 1 0 12.024034845192658 4.101366284900947 9.155860918646745 -1 0 0
1028 514 1 0 -0.3771469175992731 3.4343118823410226 9.717287125676496 0 0 0
1029 515 1 0 0.01493712655206847 6.185700684670438 7.69878078717122 0 0 0
1030 515 1 0 0.9132259930373099 6.344370511879773 7.487182757679815 0 0 0
1031 516 1 0 2.1938367503317724 4.793154249411389 7.596644909365294 0 0 0
1032 516 1 0 1.6430680370449866 5.233425061027619 6.9276283110943 0 0 0
1033 517 1 0 1.3139649344055397 7.512314673595469 8.050165423513674 0 0 0
1034 517 1 0 1.4675714709684229 6.730875897519097 8.555919012294238 0 0 0
1035 518 1 0 12.186841717671108 4.131090872700985 6.66556122670651 -1 0 0
1463 732 1 0 3.516649290218094 5.541816494742266 9.60328210352501 0 0 0
1464 732 1 0 3.606997284933219 5.460322410713321 10.545202742906634 0 0 0
1467 734 1 0 2.8014940546591647 5.520929329989184 7.687628881128298 0 0 0
1468 734 1 0 1.9805682426994498 5.750389934658282 8.018954741181352 0 0 0
1473 737 1 0 0.5228479756376001 3.907544206784266 9.594142170956605 0 0 0
1479 740 1 0 2.5205645355327606 5.880780660861482 9.853061843777787 0 0 0
1480 740 1 0 1.8277642641046663 5.7594344574144545 9.156249555464706 0 0 0
227 114 1 0 1.2354168386782935 5.049628685973005 4.955364475178157 0 0 0
228 114 1 0 1.4154495059286984 5.88326401672315 4.560646979373172 0 0 0
235 118 1 0 1.9540733187537116 9.050653280932918 -0.12401718902951264 0 0 0
237 119 1 0 3.303243140267177 5.902874259773299 3.648709090881649 0 0 0
238 119 1 0 3.2837826782902435 4.95856012641835 3.7499463116435754 0 0 0
239 120 1 0 1.4055521312055341 8.137012180859301 2.356491198866152 0 0 0
240 120 1 0 1.0634889516155668 7.293534368515918 2.612286586073947 0 0 0
245 123 1 0 0.46833321401104466 5.998361589063517 2.8583253623648073 0 0 0
246 123 1 0 1.2095011979230845 5.887133212644348 3.388021007479647 0 0 0
248 124 1 0 1.9045725563558134 6.443919017256632 -0.2967095235165349 0 0 0
249 125 1 0 1.1960788215959448 9.501250965896695 1.0487480624341334 0 0 0
251 126 1 0 1.1821178101770522 6.257861988964065 1.627115219584074 0 0 0
252 126 1 0 1.0846127215298713 5.430207357970028 2.12655296807225 0 0 0
675 338 1 0 1.1544112058795364 7.084338593303838 4.85502576577143 0 0 0
677 339 1 0 0.37787112858340943 10.275361305989435 1.0712309281964976 0 0 0
679 340 1 0 2.608074615082023 5.990056891676973 4.668791619199978 0 0 0
680 340 1 0 3.5138845161426895 6.208253807264652 4.882383946100818 0 0 0
683 342 1 0 2.150978461050198 8.768615261871586 3.410994544994886 0 0 0
684 342 1 0 2.1519009285831956 7.831799273276793 3.0732000113481024 0 0 0
685 343 1 0 2.2772368549700155 4.616963820834478 3.8193831917234817 0 0 0
686 343 1 0 2.075258950214364 5.52648856122399 3.8321687469768495 0 0 0
687 344 1 0 4.052629945585881 8.093260587867858 3.645049842686233 0 0 0
688 344 1 0 4.445263216922673 8.519196912725034 4.389331008593958 0 0 0
689 345 1 0 2.241614038074213 6.838858536972774 3.6813875567560927 0 0 0
690 345 1 0 2.0424269785234657 6.518484168820783 2.7739471967529292 0 0 0
692 346 1 0 0.7957374566347679 9.683014307460027 4.038772340813762 0 0 0
693 347 1 0 2.9854630427255566 8.132570553942289 3.5618000715718567 0 0 0
694 347 1 0 2.313355609923315 7.826541260291908 4.181840682465655 0 0 0
695 348 1 0 1.259318944887597 8.092649191853216 3.4804328948647867 0 0 0
696 348 1 0 1.2687920880339356 7.163926431781137 3.627523057568588 0 0 0
697 349 1 0 1.0982946390195203 9.510196553121762 2.617189664287449 0 0 0
698 349 1 0 1.6611164917823977 9.75058116407867 3.29586682622503 0 0 0
699 350 1 0 1.4732341792827937 4.598724552343665 2.8973717056535353 0 0 0
700 350 1 0 1.9498608319823356 5.4567027411893365 2.650983705823545 0 0 0
1121 561 1 0 1.5574638353237766 7.81694809360094 6.374138879445889 0 0 0
1122 561 1 0 1.8444254728626248 7.119455676841351 5.800118445684865 0 0 0
1125 563 1 0 2.4064749021265124 7.845129671944788 5.263981879890942 0 0 0
1126 563 1 0 2.872629446763039 8.334105683410934 5.923384274890086 0 0 0
1127 564 1 0 2.5458870525024953 6.783631291829488 8.170885143985116 0 0 0
1128 564 1 0 2.04704022174186 6.92251507356791 7.43833558127931 0 0 0
1131 566 1 0 0.48464813931455564 9.344411542941005 7.499546953847382 0 0 0
1132 566 1 0 0.165250888659759 9.213630377557152 6.636468722026452 0 0 0
1133 567 1 0 4.809935509787892 6.862329124950242 9.743198851254464 0 0 0
1134 567 1 0 4.807774977040403 6.86515643661775 8.777647206768927 0 0 0
1135 568 1 0 1.5977936036229603 9.900857413830593 8.413409015511661 0 0 0
1136 568 1 0 1.4087019808767676 10.37070570583531 9.211184710806734 0 0 0
1137 569 1 0 0.6752043343762537 8.303575845868364 7.350819155506916 0 0 0
1138 569 1 0 1.1982126952905106 8.838982102465625 6.822935534579513 0 0 0
1139 570 1 0 -0.028548564136298415 7.565120361009916 6.7966131453853 0 0 0
1140 570 1 0 0.8541945837803888 7.334978929829254 6.9119652454279334 0 0 0
1141 571 1 0 1.1697888328873516 8.40838171716534 8.354112577069735 0 0 0
1142 571 1 0 1.3698097475317497 9.072612805802235 9.048578555437395 0 0 0
1143 572 1 0 2.5220724098815315 8.049277458738926 6.8964138676170315 0 0 0
1144 572 1 0 1.7511127697470013 7.979309802009055 7.362370364891132 0 0 0
1146 573 1 0 0.12162754859691438 8.90469575278808 8.42485821903915 0 0 0
1147 574 1 0 3.2445729401040797 5.762608951751614 8.549286783003437 0 0 0
1148 574 1 0 2.8884980697988825 6.398690266542527 9.086213746597368 0 0 0
1569 785 1 0 1.0291830394550738 5.207900641909092 9.577584051695455 0 0 0
1570 785 1 0 1.8401338349383431 5.095438203446733 10.039019212366316 0 0 0
1573 787 1 0 2.564489173769606 9.565549524349919 8.793718147619332 0 0 0
1575 788 1 0 2.959774782528802 6.290529008114698 10.728274807775893 0 0 0
1576 788 1 0 3.276844333311003 6.667487452874238 9.979585495690316 0 0 0
1579 790 1 0 1.983945471151717 9.457548566061634 10.127296239356415 0 0 0
1580 790 1 0 2.8813741622518254 9.502407577709093 10.124573645979769 0 0 0
1585 793 1 0 2.8578624140943796 8.02278405836448 9.30031912055609 0 0 0
1586 793 1 0 2.10391561897554 7.909791738947019 8.742046156738812 0 0 0
1591 796 1 0 1.767910608641825 8.315083120761862 9.587087630443703 0 0 0
1592 796 1 0 2.530673274555178 8.520270340346583 10.227963501491395 0 0 0
343 172 1 0 4.336969521612765 8.203256278016438 1.601342158368698 0 0 0
349 175 1 0 0.9891346077999428 10.999279388378612 4.784040251103882 0 0 0
363 182 1 0 2.4588021529783948 10.143213669626746 0.9778782710119964 0 0 0
364 182 1 0 2.7393449817742375 9.398703636435938 0.4666029445177188 0 0 0
791 396 1 0 2.3832980492329554 11.283189821935581 4.208267492370715 0 0 0
797 399 1 0 1.7284009298643932 9.681223818166414 6.500890120415116 0 0 0
798 399 1 0 2.368200032128243 9.067215831822269 6.838315592605004 0 0 0
803 402 1 0 1.470945139232242 8.995856517440982 4.370520648609703 0 0 0
804 402 1 0 2.3013132716284392 9.375146625276166 4.168976222264402 0 0 0
807 404 1 0 1.7099942959239303 10.375773145174916 4.212408207655066 0 0 0
808 404 1 0 1.5279370575014677 9.814882665219727 4.9941558507821995 0 0 0
812 406 1 0 0.3574401453113162 10.291356389799716 5.1024147566190425 0 0 0
1239 620 1 0 1.025341633998222 10.3594119200053 7.727336358273531 0 0 0
1240 620 1 0 0.7501323260925834 10.199522093098532 6.861966323783448 0 0 0
1245 623 1 0 3.3083580329219098 8.605838919209491 10.76442270927542 0 0 0
1246 623 1 0 3.496872910793247 8.760889852374545 9.850877638088841 0 0 0
1250 625 1 0 0.8072572032223968 9.771671410944364 5.878670348936257 0 0 0
1259 630 1 0 0.5753582945111277 10.033028561306152 8.620665574764779 0 0 0
1260 630 1 0 0.5243424812360322 9.528789174642421 9.415318395565743 0 0 0
1687 844 1 0 1.4627186124068787 8.864545917222701 10.714409257627928 0 0 0
1688 844 1 0 2.0234943565455663 8.32363872471211 11.213982322105759 0 0 0
1707 854 1 0 2.415545096232358 10.35306378081188 9.52949776334807 0 0 0
1708 854 1 0 3.0836473172571837 10.920022666717488 9.117458816178754 0 0 0
29 15 1 0 2.3638801832029586 0.8197425177228048 3.1495953687442384 0 0 0
33 17 1 0 2.093288701723463 3.161366115652365 1.298852972408122 0 0 0
34 17 1 0 2.4366901028665886 2.724240768007571 0.5553817244058799 0 0 0
37 19 1 0 4.147507913573537 2.1676766973867316 0.9957979466055493 0 0 0
38 19 1 0 3.4368513959237426 2.601957005686165 0.6206242945217246 0 0 0
39 20 1 0 5.879162455982624 1.0569521761795597 0.5363613582953466 0 0 0
40 20 1 0 5.311638325844592 1.3191633293720821 -0.156453392725038 0 0 0
43 22 1 0 3.765484381478881 2.470642885518746 2.907090520842865 0 0 0
44 22 1 0 4.4064087253893875 1.8096930816241334 2.7588212835285106 0 0 0
45 23 1 0 4.910001763825748 1.0805958983854584 1.0441301460987102 0 0 0
46 23 1 0 4.851546772357761 0.37624045506729686 0.3523846260862108 0 0 0
47 24 1 0 1.6036567231481422 1.61236729828091 1.1702057228875085 0 0 0
48 24 1 0 2.287859002324105 0.9780342937293107 0.9584741247812012 0 0 0
49 25 1 0 4.084647369140406 1.2324161486706569 3.514528991888297 0 0 0
50 25 1 0 4.047562242559874 2.1099680733857613 3.768597721133453 0 0 0
51 26 1 0 3.609366450170228 1.8781350711590483 2.00275719028793 0 0 0
52 26 1 0 4.273187362339168 1.2436212436689382 1.8588742127914162 0 0 0
53 27 1 0 5.337724495825241 2.104408623669075 2.3407014798297827 0 0 0
54 27 1 0 5.527072248614097 1.6581228508318633 1.5554578349202162 0 0 0
477 239 1 0 3.25773046468414 1.7312895067098788 4.393989987943904 0 0 0
478 239 1 0 2.796491472957547 2.059528776582257 5.2411487146060125 0 0 0
479 240 1 0 4.369907450079693 0.48645747674905704 6.373053830786913 0 0 0
481 241 1 0 2.3236667943505482 3.1212582230381845 5.226489511400349 0 0 0
482 241 1 0 2.4216683509498282 2.580972587648183 4.529982141245535 0 0 0
485 243 1 0 6.659965452259309 3.1800014823425586 5.512559473784131 0 0 0
486 243 1 0 5.785459306678245 2.9305826350411155 5.295154039446801 0 0 0
487 244 1 0 5.631258955203784 12.145424000160459 4.853338638112313 0 -1 0
488 244 1 0 5.630121702520039 0.2820757909646465 4.7829134097223305 0 0 0
491 246 1 0 7.4027999815626195 1.4960938355419011 5.083006447901122 0 0 0
492 246 1 0 7.6381815394021455 1.2626560193029015 4.180044387678486 0 0 0
494 247 1 0 2.9942520207791308 0.4442677566728954 4.395318876413196 0 0 0
495 248 1 0 1.3389814809089515 0.1657075836429862 3.88517426977731 0 0 0
496 248 1 0 0.4185238927496755 0.023678888084107785 3.6068970043476334 0 0 0
497 249 1 0 6.350095886590305 1.282719732060899 4.632001678687427 0 0 0
498 249 1 0 5.772239068017342 1.4983542512228643 5.326062969555039 0 0 0
499 250 1 0 4.538648129719708 0.9287722864455885 4.380605430428731 0 0 0
500 250 1 0 4.808203028825822 1.0741563271359487 5.293425111346466 0 0 0
501 251 1 0 4.981419324157149 2.5674310287045348 3.2483732740944067 0 0 0
502 251 1 0 4.810902474927765 2.652373048509139 4.201459583299071 0 0 0
925 463 1 0 3.494551658110512 0.9496845071152837 8.066149555745154 0 0 0
927 464 1 0 1.1470229227061464 0.8498134720123969 9.363221037699596 0 0 0
929 465 1 0 4.655601756655749 0.30409188552044286 8.072142610151799 0 0 0
930 465 1 0 5.170710713214408 0.35783488171974254 8.848738696015387 0 0 0
933 467 1 0 3.543167821494859 1.846993038546886 8.508744232451845 0 0 0
934 467 1 0 3.3013072923205096 2.648430645439385 8.785923162728151 0 0 0
935 468 1 0 6.474604336854096 0.21571849897766837 6.559045864404886 0 0 0
936 468 1 0 7.084538438936214 -0.46363681847925486 6.303934109791604 0 0 0
941 471 1 0 4.064601336203694 0.33308007393715666 5.229501009782049 0 0 0
942 471 1 0 3.7045292457996517 1.251800653924631 5.45313094221752 0 0 0
945 473 1 0 4.530901719225053 1.3942527959222073 9.268773720639928 0 0 0
946 473 1 0 5.2746749169278235 1.50025598614274 8.73688870219271 0 0 0
948 474 1 0 5.379130246222619 12.177229258980697 8.525516623754159 0 -1 0
949 475 1 0 4.603123505990415 1.6671346990767595 6.419677260133091 0 0 0
950 475 1 0 5.297900282357784 1.4276235615989092 7.028994178600792 0 0 0
1377 689 1 0 2.200570460571015 0.9844370760906167 9.507424171454488 0 0 0
1378 689 1 0 2.4852875228425617 1.9250973408293768 9.528919015331835 0 0 0
1380 690 1 0 5.903534758707256 -0.21151940231088578 9.669409727704789 0 0 0
1383 692 1 0 4.324830030398939 2.077379708670396 10.162442546606535 0 0 0
1384 692 1 0 3.5702810721306157 1.97664114492245 9.659272861776529 0 0 0
1389 695 1 0 5.226229194700878 0.68435251927863 9.844171598020152 0 0 0
1390 695 1 0 4.363705016116697 0.3239864748437393 9.637352042659087 0 0 0
141 71 1 0 3.18554626665081 3.715496382470593 0.8225352599740199 0 0 0
142 71 1 0 3.5261637399266155 4.086364478313022 0.031355525261681394 0 0 0
143 72 1 0 2.815949590560205 3.66239195112984 3.6572771048244803 0 0 0
144 72 1 0 2.7488540436710376 4.115260599846857 2.8608327741799218 0 0 0
149 75 1 0 4.045197636952348 4.803442282384445 1.3421880829205364 0 0 0
150 75 1 0 4.804622368161289 4.325241001148278 1.323105354015575 0 0 0
153 77 1 0 7.330289717854351 3.8013725595539487 1.6202196387318177 0 0 0
154 77 1 0 6.7347776006276465 4.108132050291016 2.266503383791786 0 0 0
155 78 1 0 4.503811689719612 6.132786983329542 0.5069352660738131 0 0 0
156 78 1 0 4.445745656618124 5.819146502837235 1.3785062899759173 0 0 0
159 80 1 0 4.029214384429013 4.746134979924367 12.117111032530824 0 0 -1
160 80 1 0 3.902834515386168 5.03559655736312 0.21224158250599767 0 0 0
161 81 1 0 5.8782630519391255 4.507305361221309 1.5565794611153332 0 0 0
162 81 1 0 6.829609575551439 4.709331088991097 1.560550112014901 0 0 0
165 83 1 0 2.337559947289368 6.629979686971717 1.1308798110352911 0 0 0
166 83 1 0 2.8592272659185407 7.1492956927696945 0.4578944507626592 0 0 0
167 84 1 0 3.884670633495962 3.1600412626529946 1.5178731233437568 0 0 0
168 84 1 0 4.463503260349868 2.6638949827753073 2.038410053828733 0 0 0
589 295 1 0 4.679577792806341 3.701409957162457 2.927830127939001 0 0 0
590 295 1 0 5.099851723548669 3.628317199103467 2.0543914806547936 0 0 0
591 296 1 0 3.6343497547733685 2.994344008244541 5.614704506788023 0 0 0
592 296 1 0 3.959596755390918 2.624504668739985 4.844143904194879 0 0 0
593 297 1 0 4.061062437781394 4.369011527588604 2.5550679785703303 0 0 0
594 297 1 0 3.7551980852795754 3.4647679839877976 2.4994885712649757 0 0 0
595 298 1 0 6.15942087692341 2.7752467863005217 2.7397362288444658 0 0 0
596 298 1 0 6.4427813065127255 2.38480197806869 1.9109165720262213 0 0 0
597 299 1 0 4.393564992165822 5.026876408177302 6.001622295210634 0 0 0
598 299 1 0 4.214070656635968 5.672964937300563 5.335084846394738 0 0 0
599 300 1 0 4.185815851931389 5.329904746424558 4.321036352496024 0 0 0
600 300 1 0 4.246314617565189 5.217769089572744 3.3727456768128983 0 0 0
601 301 1 0 5.403368925745141 1.357726999936357 3.540393863206072 0 0 0
602 301 1 0 5.577521999315739 1.9355430587478333 4.2633263987571075 0 0 0
603 302 1 0 7.516612920130511 4.3662501390525685 6.820156169757036 0 0 0
604 302 1 0 7.994548290157809 4.806993430103356 6.044376397208568 0 0 0
605 303 1 0 5.599032827622039 5.133228106237476 3.2795825666313605 0 0 0
606 303 1 0 6.225388587991663 5.110385419325859 2.516515632065417 0 0 0
607 304 1 0 3.890447001114886 4.230529229657073 4.144253037668348 0 0 0
608 304 1 0 3.4274999935343935 4.7434289343993985 4.802963596863183 0 0 0
609 305 1 0 2.649585705750807 2.6702783162498025 3.1088135048394236 0 0 0
610 305 1 0 2.2387054325891285 1.8857284105197034 3.58747739843344 0 0 0
611 306 1 0 5.751997762209076 4.081427947184114 7.406564096442267 0 0 0
612 306 1 0 6.626409776258635 3.9371974023345118 7.614551719468425 0 0 0
613 307 1 0 5.025128449327412 4.2532259330637645 3.776711309724269 0 0 0
614 307 1 0 5.4225498969547665 3.4087967986296173 3.8610357131813755 0 0 0
615 308 1 0 2.143876083706493 2.5252162844666475 6.133618583587482 0 0 0
616 308 1 0 1.4951690174308259 3.1815801038948663 5.854366134944922 0 0 0
1037 519 1 0 0.8852743196897421 1.497450803144699 5.925449199656265 0 0 0
1038 519 1 0 1.139771100965595 0.651209686100283 6.260555619206163 0 0 0
1039 520 1 0 2.099886859177717 2.7240371087777038 8.652296221680743 0 0 0
1040 520 1 0 1.9469352988812854 3.5476208000422034 8.188429542694193 0 0 0
1041 521 1 0 4.793550795038204 2.9847911641507086 5.774738824285792 0 0 0
1042 521 1 0 4.981343140703088 2.2711551056474804 5.1753582352966 0 0 0
1043 522 1 0 5.757099605876579 -0.14140195070389044 7.4159501469444535 0 0 0
1044 522 1 0 5.588694275841384 0.640872316133313 7.865186991398529 0 0 0
1045 523 1 0 3.9547570950625532 2.5564816972775017 6.758157732572312 0 0 0
1046 523 1 0 3.7652353218845533 3.4603188175332207 6.711837968181408 0 0 0
1047 524 1 0 6.042736114873344 5.140529462553217 7.571452055323874 0 0 0
1048 524 1 0 6.523380130635591 4.867753799497607 6.789360814953581 0 0 0
1049 525 1 0 1.3305876126999157 1.4742368478906842 7.265893054574784 0 0 0
1050 525 1 0 1.165400484395863 2.1874083763984475 7.823733687329735 0 0 0
1051 526 1 0 5.0538348517972835 5.911409596647987 7.063513730633476 0 0 0
1052 526 1 0 5.47078461718484 5.148815027895474 6.538516152646368 0 0 0
1053 527 1 0 5.510851340433243 4.050809813305659 5.858039289158171 0 0 0
1054 527 1 0 5.846407076728319 3.880846504204813 4.985364593974207 0 0 0
1055 528 1 0 3.5812068025014927 1.5427862993320556 6.521766776003796 0 0 0
1056 528 1 0 3.3973634290793804 1.8723052168680598 7.405144439885119 0 0 0
1057 529 1 0 1.7132353028802565 3.922483214791151 7.1326236295815395 0 0 0
1058 529 1 0 1.9465220457780896 3.002543545563122 7.31937922954175 0 0 0
1059 530 1 0 3.090294258109543 2.9811404616846313 7.724610583211513 0 0 0
1060 530 1 0 2.711421804955034 3.7389819728618425 7.378055716131289 0 0 0
1061 531 1 0 5.5147360106906085 2.089722010436524 6.1552420416498865 0 0 0
1062 531 1 0 5.163831984231482 2.474547201864622 6.941116024213308 0 0 0
1063 532 1 0 2.3045533671504703 1.9693171230838775 7.910686835925448 0 0 0
1064 532 1 0 2.4956188528665124 1.8960085332503844 6.954850045066856 0 0 0
1486 743 1 0 1.7580542223168028 3.4692502805249514 9.875547508262782 0 0 0
1489 745 1 0 3.767495852360441 5.534800085089917 7.480064409114758 0 0 0
1490 745 1 0 3.5650926159557974 4.803558244694059 8.030859175346224 0 0 0
1491 746 1 0 4.500385387352826 1.8772906191271659 8.03324515400073 0 0 0
1492 746 1 0 4.428705881220751 2.3271361983142658 8.836936386452015 0 0 0
1495 748 1 0 4.287542053875235 4.704998369537454 6.9212318856609105 0 0 0
1496 748 1 0 4.8100256056176 5.079658587171444 7.580398573695049 0 0 0
1501 751 1 0 3.653236288455137 3.7119043436282997 8.401041549518967 0 0 0
1502 751 1 0 4.326355858860268 3.3538879172246037 8.929280197083072 0 0 0
1503 752 1 0 2.6528790110977627 4.799060960329811 8.485249201600295 0 0 0
1504 752 1 0 1.9322657408163657 4.656907321434191 9.225228196110534 0 0 0
1507 754 1 0 5.823778919549226 3.3899975748407067 8.357770493355062 0 0 0
1508 754 1 0 5.119375028234879 3.9484820195779182 8.610452373576639 0 0 0
1509 755 1 0 5.6445067608215 3.5381175887349903 9.536318103459074 0 0 0
1510 755 1 0 5.525615353598489 3.2926735276841534 10.453351434851255 0 0 0
1511 756 1 0 4.925151800063947 3.0935425310459688 7.703603964574942 0 0 0
255 128 1 0 2.7587161334175514 5.127957433469587 1.6912453008569845 0 0 0
256 128 1 0 2.9094447121523768 6.042369140327621 2.0591153247158047 0 0 0
261 131 1 0 2.325754630342857 9.202171963037001 2.5075342441377013 0 0 0
262 131 1 0 1.9517265920464322 8.99107683747058 1.6978244053134741 0 0 0
263 132 1 0 6.0880586377613035 6.699145829092713 1.4143016911500041 0 0 0
264 132 1 0 5.387316802701065 6.873737950767325 0.7789371777975056 0 0 0
265 133 1 0 6.908348964173635 5.764615491639084 0.8236051537208384 0 0 0
266 133 1 0 5.921511076994221 5.789013960432358 0.9732672897135242 0 0 0
267 134 1 0 2.8868967837693846 9.313777492121964 1.5710136833898058 0 0 0
268 134 1 0 2.9161263647412796 8.501022193570654 0.9861778947121218 0 0 0
272 136 1 0 3.108282635510949 4.715336436600823 0.7876181184502542 0 0 0
273 137 1 0 -0.45026157158454705 6.254342457481861 0.768029036833755 0 0 0
274 137 1 0 0.531211246959588 6.421597703389188 0.7719899138233133 0 0 0
275 138 1 0 5.223563556374852 6.01911147980832 -0.10641529442010039 0 0 0
276 138 1 0 4.3768616757676115 5.941523695355307 -0.4927907424693956 0 0 0
277 139 1 0 2.5922754653557765 7.277637933258899 2.155645575511935 0 0 0
278 139 1 0 3.2206359712273045 7.613623337611152 1.5092946210562888 0 0 0
279 140 1 0 2.6248128791546876 5.779462512210717 0.7466643816286205 0 0 0
280 140 1 0 3.358289756432699 5.871721778954023 0.11513609922662849 0 0 0
701 351 1 0 4.52162402084133 6.786883805054181 2.9975916158353053 0 0 0
702 351 1 0 4.849396461581867 6.0325276344993615 2.521740922682934 0 0 0
703 352 1 0 5.262878154785881 6.9455746725201895 5.616516965118528 0 0 0
704 352 1 0 4.685690179890909 6.372876169304141 6.100008272027876 0 0 0
705 353 1 0 3.863738484932518 6.543012380455138 2.2628739364306343 0 0 0
706 353 1 0 3.1510108027717894 6.595901845146049 2.8784090815881997 0 0 0
707 354 1 0 3.5320342111948255 6.5497845188932065 1.0976441990366195 0 0 0
708 354 1 0 3.447264438005168 5.614781840393257 1.2296351531261032 0 0 0
709 355 1 0 3.0430516200913815 7.381929173369392 6.234177339645028 0 0 0
710 355 1 0 3.0954378631354147 6.972131934083811 5.400157632503461 0 0 0
711 356 1 0 3.3181897293511713 8.483112543745705 4.481951902049154 0 0 0
712 356 1 0 3.6857036074672003 9.31600040131863 4.483612709711594 0 0 0
713 357 1 0 4.665396691361437 7.330109895284304 4.36459730486084 0 0 0
714 357 1 0 5.401938022728729 7.673867254143978 4.832592131034736 0 0 0
715 358 1 0 4.871687420756152 8.394062602710987 6.377234186023012 0 0 0
716 358 1 0 4.84653987785298 9.197088087442744 6.8294482553570495 0 0 0
717 359 1 0 5.304645928216974 6.6661424487418275 1.9979722140792937 0 0 0
718 359 1 0 4.559555825581855 6.873742450295301 1.5004393702268253 0 0 0
719 360 1 0 3.470710043000795 7.815618453532583 5.162889242277818 0 0 0
720 360 1 0 3.411146773827614 7.2732503924136145 4.441746054832578 0 0 0
721 361 1 0 4.743987677535423 6.294617548341911 4.6086841221638615 0 0 0
722 361 1 0 5.171596030317019 5.861864032858779 5.322510814922573 0 0 0
723 362 1 0 4.665870250046957 7.906086207149476 5.509465720564639 0 0 0
724 362 1 0 4.245176133985975 7.145182491265334 5.301292136723304 0 0 0
725 363 1 0 3.935641342693031 10.595085332865066 6.222945762036135 0 0 0
726 363 1 0 4.135840414515413 9.66981426858758 6.220514026336338 0 0 0
727 364 1 0 5.961692740516091 7.458762875465445 2.098701093069481 0 0 0
728 364 1 0 5.046199770132233 7.544742625250686 2.486871696799545 0 0 0
1149 575 1 0 6.169071242361219 6.213867795582835 7.368038433098431 0 0 0
1150 575 1 0 6.291422394724243 6.093603362206823 6.377588141819655 0 0 0
1151 576 1 0 5.557151281939159 6.97512287693848 6.527692347954333 0 0 0
1152 576 1 0 5.473545677544444 7.103650488522404 7.502691503090558 0 0 0
1153 577 1 0 2.4982796532976153 5.427978858267821 6.222103104929227 0 0 0
1154 577 1 0 2.629195973050771 6.3238008837692865 6.166420321195749 0 0 0
1155 578 1 0 4.6465040673692 7.613326933092194 7.100955565447085 0 0 0
1156 578 1 0 3.7990662792881515 7.440110436095264 7.453259300285916 0 0 0
1157 579 1 0 4.759358716091196 7.846983705402174 8.24437723846787 0 0 0
1158 579 1 0 4.658066374141575 8.432809915096895 9.029685026074876 0 0 0
1159 580 1 0 3.7389293379575257 8.027215902529282 6.494362428993816 0 0 0